# vtk DataFile Version 2.0
abaqus to vtk
ASCII
DATASET UNSTRUCTURED_GRID
POINTS 216 double
0.600000 1.000000 1.000000
0.600000 1.000000 0.000000
0.400000 1.000000 0.000000
0.400000 1.000000 1.000000
0.600000 0.000000 0.000000
0.400000 0.000000 0.000000
0.400000 0.000000 1.000000
0.600000 0.000000 1.000000
0.000000 0.000000 1.000000
0.000000 0.000000 0.000000
0.000000 1.000000 1.000000
0.000000 1.000000 0.000000
1.000000 1.000000 1.000000
1.000000 0.000000 1.000000
1.000000 0.000000 0.000000
1.000000 1.000000 0.000000
0.600000 1.000000 0.800000
0.600000 1.000000 0.600000
0.600000 1.000000 0.400000
0.600000 1.000000 0.200000
0.400000 1.000000 0.200000
0.400000 1.000000 0.400000
0.400000 1.000000 0.600000
0.400000 1.000000 0.800000
0.600000 0.000000 0.200000
0.600000 0.000000 0.400000
0.600000 0.000000 0.600000
0.600000 0.000000 0.800000
0.400000 0.000000 0.800000
0.400000 0.000000 0.600000
0.400000 0.000000 0.400000
0.400000 0.000000 0.200000
0.400000 0.800000 1.000000
0.400000 0.600000 1.000000
0.400000 0.400000 1.000000
0.400000 0.200000 1.000000
0.600000 0.200000 1.000000
0.600000 0.400000 1.000000
0.600000 0.600000 1.000000
0.600000 0.800000 1.000000
0.400000 0.200000 0.000000
0.400000 0.400000 0.000000
0.400000 0.600000 0.000000
0.400000 0.800000 0.000000
0.600000 0.800000 0.000000
0.600000 0.600000 0.000000
0.600000 0.400000 0.000000
0.600000 0.200000 0.000000
0.200000 0.000000 1.000000
0.000000 0.000000 0.800000
0.000000 0.000000 0.600000
0.000000 0.000000 0.400000
0.000000 0.000000 0.200000
0.200000 0.000000 0.000000
0.200000 1.000000 1.000000
0.000000 1.000000 0.200000
0.000000 1.000000 0.400000
0.000000 1.000000 0.600000
0.000000 1.000000 0.800000
0.200000 1.000000 0.000000
0.000000 0.200000 0.000000
0.000000 0.400000 0.000000
0.000000 0.600000 0.000000
0.000000 0.800000 0.000000
0.000000 0.800000 1.000000
0.000000 0.600000 1.000000
0.000000 0.400000 1.000000
0.000000 0.200000 1.000000
1.000000 0.800000 1.000000
1.000000 0.600000 1.000000
1.000000 0.400000 1.000000
1.000000 0.200000 1.000000
1.000000 0.000000 0.800000
1.000000 0.000000 0.600000
1.000000 0.000000 0.400000
1.000000 0.000000 0.200000
1.000000 0.200000 0.000000
1.000000 0.400000 0.000000
1.000000 0.600000 0.000000
1.000000 0.800000 0.000000
1.000000 1.000000 0.200000
1.000000 1.000000 0.400000
1.000000 1.000000 0.600000
1.000000 1.000000 0.800000
0.800000 1.000000 0.000000
0.800000 1.000000 1.000000
0.800000 0.000000 0.000000
0.800000 0.000000 1.000000
0.600000 0.800000 0.800000
0.600000 0.800000 0.600000
0.600000 0.800000 0.400000
0.600000 0.800000 0.200000
0.600000 0.600000 0.800000
0.600000 0.600000 0.600000
0.600000 0.600000 0.400000
0.600000 0.600000 0.200000
0.600000 0.400000 0.800000
0.600000 0.400000 0.600000
0.600000 0.400000 0.400000
0.600000 0.400000 0.200000
0.600000 0.200000 0.800000
0.600000 0.200000 0.600000
0.600000 0.200000 0.400000
0.600000 0.200000 0.200000
0.400000 0.800000 0.800000
0.400000 0.800000 0.600000
0.400000 0.800000 0.400000
0.400000 0.800000 0.200000
0.400000 0.600000 0.800000
0.400000 0.600000 0.600000
0.400000 0.600000 0.400000
0.400000 0.600000 0.200000
0.400000 0.400000 0.800000
0.400000 0.400000 0.600000
0.400000 0.400000 0.400000
0.400000 0.400000 0.200000
0.400000 0.200000 0.800000
0.400000 0.200000 0.600000
0.400000 0.200000 0.400000
0.400000 0.200000 0.200000
0.200000 0.000000 0.200000
0.200000 0.000000 0.400000
0.200000 0.000000 0.600000
0.200000 0.000000 0.800000
0.200000 1.000000 0.200000
0.200000 1.000000 0.400000
0.200000 1.000000 0.600000
0.200000 1.000000 0.800000
0.200000 0.200000 0.000000
0.200000 0.400000 0.000000
0.200000 0.600000 0.000000
0.200000 0.800000 0.000000
0.200000 0.200000 1.000000
0.200000 0.400000 1.000000
0.200000 0.600000 1.000000
0.200000 0.800000 1.000000
0.000000 0.200000 0.200000
0.000000 0.200000 0.400000
0.000000 0.200000 0.600000
0.000000 0.200000 0.800000
0.000000 0.400000 0.200000
0.000000 0.400000 0.400000
0.000000 0.400000 0.600000
0.000000 0.400000 0.800000
0.000000 0.600000 0.200000
0.000000 0.600000 0.400000
0.000000 0.600000 0.600000
0.000000 0.600000 0.800000
0.000000 0.800000 0.200000
0.000000 0.800000 0.400000
0.000000 0.800000 0.600000
0.000000 0.800000 0.800000
1.000000 0.800000 0.800000
1.000000 0.600000 0.800000
1.000000 0.400000 0.800000
1.000000 0.200000 0.800000
1.000000 0.800000 0.600000
1.000000 0.600000 0.600000
1.000000 0.400000 0.600000
1.000000 0.200000 0.600000
1.000000 0.800000 0.400000
1.000000 0.600000 0.400000
1.000000 0.400000 0.400000
1.000000 0.200000 0.400000
1.000000 0.800000 0.200000
1.000000 0.600000 0.200000
1.000000 0.400000 0.200000
1.000000 0.200000 0.200000
0.800000 1.000000 0.800000
0.800000 1.000000 0.600000
0.800000 1.000000 0.400000
0.800000 1.000000 0.200000
0.800000 0.000000 0.800000
0.800000 0.000000 0.600000
0.800000 0.000000 0.400000
0.800000 0.000000 0.200000
0.800000 0.800000 1.000000
0.800000 0.600000 1.000000
0.800000 0.400000 1.000000
0.800000 0.200000 1.000000
0.800000 0.800000 0.000000
0.800000 0.600000 0.000000
0.800000 0.400000 0.000000
0.800000 0.200000 0.000000
0.200000 0.200000 0.200000
0.200000 0.200000 0.400000
0.200000 0.200000 0.600000
0.200000 0.200000 0.800000
0.200000 0.400000 0.200000
0.200000 0.400000 0.400000
0.200000 0.400000 0.600000
0.200000 0.400000 0.800000
0.200000 0.600000 0.200000
0.200000 0.600000 0.400000
0.200000 0.600000 0.600000
0.200000 0.600000 0.800000
0.200000 0.800000 0.200000
0.200000 0.800000 0.400000
0.200000 0.800000 0.600000
0.200000 0.800000 0.800000
0.800000 0.800000 0.800000
0.800000 0.600000 0.800000
0.800000 0.400000 0.800000
0.800000 0.200000 0.800000
0.800000 0.800000 0.600000
0.800000 0.600000 0.600000
0.800000 0.400000 0.600000
0.800000 0.200000 0.600000
0.800000 0.800000 0.400000
0.800000 0.600000 0.400000
0.800000 0.400000 0.400000
0.800000 0.200000 0.400000
0.800000 0.800000 0.200000
0.800000 0.600000 0.200000
0.800000 0.400000 0.200000
0.800000 0.200000 0.200000
CELLS 125 1125
8 39 88 104 32 0 16 23 3 
8 88 89 105 104 16 17 22 23 
8 89 90 106 105 17 18 21 22 
8 90 91 107 106 18 19 20 21 
8 91 44 43 107 19 1 2 20 
8 38 92 108 33 39 88 104 32 
8 92 93 109 108 88 89 105 104 
8 93 94 110 109 89 90 106 105 
8 94 95 111 110 90 91 107 106 
8 95 45 42 111 91 44 43 107 
8 37 96 112 34 38 92 108 33 
8 96 97 113 112 92 93 109 108 
8 97 98 114 113 93 94 110 109 
8 98 99 115 114 94 95 111 110 
8 99 46 41 115 95 45 42 111 
8 36 100 116 35 37 96 112 34 
8 100 101 117 116 96 97 113 112 
8 101 102 118 117 97 98 114 113 
8 102 103 119 118 98 99 115 114 
8 103 47 40 119 99 46 41 115 
8 7 27 28 6 36 100 116 35 
8 27 26 29 28 100 101 117 116 
8 26 25 30 29 101 102 118 117 
8 25 24 31 30 102 103 119 118 
8 24 4 5 31 103 47 40 119 
8 40 119 184 128 5 31 120 53 
8 119 118 185 184 31 30 121 120 
8 118 117 186 185 30 29 122 121 
8 117 116 187 186 29 28 123 122 
8 116 35 132 187 28 6 48 123 
8 128 184 136 60 53 120 52 9 
8 184 185 137 136 120 121 51 52 
8 185 186 138 137 121 122 50 51 
8 186 187 139 138 122 123 49 50 
8 187 132 67 139 123 48 8 49 
8 41 115 188 129 40 119 184 128 
8 115 114 189 188 119 118 185 184 
8 114 113 190 189 118 117 186 185 
8 113 112 191 190 117 116 187 186 
8 112 34 133 191 116 35 132 187 
8 129 188 140 61 128 184 136 60 
8 188 189 141 140 184 185 137 136 
8 189 190 142 141 185 186 138 137 
8 190 191 143 142 186 187 139 138 
8 191 133 66 143 187 132 67 139 
8 42 111 192 130 41 115 188 129 
8 111 110 193 192 115 114 189 188 
8 110 109 194 193 114 113 190 189 
8 109 108 195 194 113 112 191 190 
8 108 33 134 195 112 34 133 191 
8 130 192 144 62 129 188 140 61 
8 192 193 145 144 188 189 141 140 
8 193 194 146 145 189 190 142 141 
8 194 195 147 146 190 191 143 142 
8 195 134 65 147 191 133 66 143 
8 43 107 196 131 42 111 192 130 
8 107 106 197 196 111 110 193 192 
8 106 105 198 197 110 109 194 193 
8 105 104 199 198 109 108 195 194 
8 104 32 135 199 108 33 134 195 
8 131 196 148 63 130 192 144 62 
8 196 197 149 148 192 193 145 144 
8 197 198 150 149 193 194 146 145 
8 198 199 151 150 194 195 147 146 
8 199 135 64 151 195 134 65 147 
8 2 20 124 59 43 107 196 131 
8 20 21 125 124 107 106 197 196 
8 21 22 126 125 106 105 198 197 
8 22 23 127 126 105 104 199 198 
8 23 3 54 127 104 32 135 199 
8 59 124 55 11 131 196 148 63 
8 124 125 56 55 196 197 149 148 
8 125 126 57 56 197 198 150 149 
8 126 127 58 57 198 199 151 150 
8 127 54 10 58 199 135 64 151 
8 85 176 200 168 12 68 152 83 
8 176 177 201 200 68 69 153 152 
8 177 178 202 201 69 70 154 153 
8 178 179 203 202 70 71 155 154 
8 179 87 172 203 71 13 72 155 
8 168 200 204 169 83 152 156 82 
8 200 201 205 204 152 153 157 156 
8 201 202 206 205 153 154 158 157 
8 202 203 207 206 154 155 159 158 
8 203 172 173 207 155 72 73 159 
8 169 204 208 170 82 156 160 81 
8 204 205 209 208 156 157 161 160 
8 205 206 210 209 157 158 162 161 
8 206 207 211 210 158 159 163 162 
8 207 173 174 211 159 73 74 163 
8 170 208 212 171 81 160 164 80 
8 208 209 213 212 160 161 165 164 
8 209 210 214 213 161 162 166 165 
8 210 211 215 214 162 163 167 166 
8 211 174 175 215 163 74 75 167 
8 171 212 180 84 80 164 79 15 
8 212 213 181 180 164 165 78 79 
8 213 214 182 181 165 166 77 78 
8 214 215 183 182 166 167 76 77 
8 215 175 86 183 167 75 14 76 
8 0 39 88 16 85 176 200 168 
8 39 38 92 88 176 177 201 200 
8 38 37 96 92 177 178 202 201 
8 37 36 100 96 178 179 203 202 
8 36 7 27 100 179 87 172 203 
8 16 88 89 17 168 200 204 169 
8 88 92 93 89 200 201 205 204 
8 92 96 97 93 201 202 206 205 
8 96 100 101 97 202 203 207 206 
8 100 27 26 101 203 172 173 207 
8 17 89 90 18 169 204 208 170 
8 89 93 94 90 204 205 209 208 
8 93 97 98 94 205 206 210 209 
8 97 101 102 98 206 207 211 210 
8 101 26 25 102 207 173 174 211 
8 18 90 91 19 170 208 212 171 
8 90 94 95 91 208 209 213 212 
8 94 98 99 95 209 210 214 213 
8 98 102 103 99 210 211 215 214 
8 102 25 24 103 211 174 175 215 
8 19 91 44 1 171 212 180 84 
8 91 95 45 44 212 213 181 180 
8 95 99 46 45 213 214 182 181 
8 99 103 47 46 214 215 183 182 
8 103 24 4 47 215 175 86 183 
CELL_TYPES 125
12
12
12
12
12
12
12
12
12
12
12
12
12
12
12
12
12
12
12
12
12
12
12
12
12
12
12
12
12
12
12
12
12
12
12
12
12
12
12
12
12
12
12
12
12
12
12
12
12
12
12
12
12
12
12
12
12
12
12
12
12
12
12
12
12
12
12
12
12
12
12
12
12
12
12
12
12
12
12
12
12
12
12
12
12
12
12
12
12
12
12
12
12
12
12
12
12
12
12
12
12
12
12
12
12
12
12
12
12
12
12
12
12
12
12
12
12
12
12
12
12
12
12
12
12

CELL_DATA 125
SCALARS YOUNGS_MODULUS float 1
LOOKUP_TABLE default
1.00000
1.00000
1.00000
1.00000
1.00000
1.00000
1.00000
1.00000
1.00000
1.00000
1.00000
1.00000
1.00000
1.00000
1.00000
1.00000
1.00000
1.00000
1.00000
1.00000
1.00000
1.00000
1.00000
1.00000
1.00000
1.00000
1.00000
1.00000
1.00000
1.00000
1.00000
1.00000
1.00000
1.00000
1.00000
1.00000
1.00000
1.00000
1.00000
1.00000
1.00000
1.00000
1.00000
1.00000
1.00000
1.00000
1.00000
1.00000
1.00000
1.00000
1.00000
1.00000
1.00000
1.00000
1.00000
1.00000
1.00000
1.00000
1.00000
1.00000
1.00000
1.00000
1.00000
1.00000
1.00000
1.00000
1.00000
1.00000
1.00000
1.00000
1.00000
1.00000
1.00000
1.00000
1.00000
1.00000
1.00000
1.00000
1.00000
1.00000
1.00000
1.00000
1.00000
1.00000
1.00000
1.00000
1.00000
1.00000
1.00000
1.00000
1.00000
1.00000
1.00000
1.00000
1.00000
1.00000
1.00000
1.00000
1.00000
1.00000
1.00000
1.00000
1.00000
1.00000
1.00000
1.00000
1.00000
1.00000
1.00000
1.00000
1.00000
1.00000
1.00000
1.00000
1.00000
1.00000
1.00000
1.00000
1.00000
1.00000
1.00000
1.00000
1.00000
1.00000
1.00000

SCALARS Yield_Strength_T float 1
LOOKUP_TABLE default
0.10000
0.10000
0.10000
0.10000
0.10000
0.10000
0.10000
0.10000
0.10000
0.10000
0.10000
0.10000
0.10000
0.10000
0.10000
0.10000
0.10000
0.10000
0.10000
0.10000
0.10000
0.10000
0.10000
0.10000
0.10000
1.00000
1.00000
1.00000
1.00000
1.00000
1.00000
1.00000
1.00000
1.00000
1.00000
1.00000
1.00000
1.00000
1.00000
1.00000
1.00000
1.00000
1.00000
1.00000
1.00000
1.00000
1.00000
1.00000
1.00000
1.00000
1.00000
1.00000
1.00000
1.00000
1.00000
1.00000
1.00000
1.00000
1.00000
1.00000
1.00000
1.00000
1.00000
1.00000
1.00000
1.00000
1.00000
1.00000
1.00000
1.00000
1.00000
1.00000
1.00000
1.00000
1.00000
1.00000
1.00000
1.00000
1.00000
1.00000
1.00000
1.00000
1.00000
1.00000
1.00000
1.00000
1.00000
1.00000
1.00000
1.00000
1.00000
1.00000
1.00000
1.00000
1.00000
1.00000
1.00000
1.00000
1.00000
1.00000
1.00000
1.00000
1.00000
1.00000
1.00000
1.00000
1.00000
1.00000
1.00000
1.00000
1.00000
1.00000
1.00000
1.00000
1.00000
1.00000
1.00000
1.00000
1.00000
1.00000
1.00000
1.00000
1.00000
1.00000
1.00000

SCALARS Yield_Strength_C float 1
LOOKUP_TABLE default
0.10000
0.10000
0.10000
0.10000
0.10000
0.10000
0.10000
0.10000
0.10000
0.10000
0.10000
0.10000
0.10000
0.10000
0.10000
0.10000
0.10000
0.10000
0.10000
0.10000
0.10000
0.10000
0.10000
0.10000
0.10000
1.00000
1.00000
1.00000
1.00000
1.00000
1.00000
1.00000
1.00000
1.00000
1.00000
1.00000
1.00000
1.00000
1.00000
1.00000
1.00000
1.00000
1.00000
1.00000
1.00000
1.00000
1.00000
1.00000
1.00000
1.00000
1.00000
1.00000
1.00000
1.00000
1.00000
1.00000
1.00000
1.00000
1.00000
1.00000
1.00000
1.00000
1.00000
1.00000
1.00000
1.00000
1.00000
1.00000
1.00000
1.00000
1.00000
1.00000
1.00000
1.00000
1.00000
1.00000
1.00000
1.00000
1.00000
1.00000
1.00000
1.00000
1.00000
1.00000
1.00000
1.00000
1.00000
1.00000
1.00000
1.00000
1.00000
1.00000
1.00000
1.00000
1.00000
1.00000
1.00000
1.00000
1.00000
1.00000
1.00000
1.00000
1.00000
1.00000
1.00000
1.00000
1.00000
1.00000
1.00000
1.00000
1.00000
1.00000
1.00000
1.00000
1.00000
1.00000
1.00000
1.00000
1.00000
1.00000
1.00000
1.00000
1.00000
1.00000
1.00000

POINT_DATA 216
SCALARS BOUNDARY_CONDITIONS int 1
LOOKUP_TABLE default
0
0
0
0
0
0
0
0
5
5
5
5
1
1
1
1
0
0
0
0
0
0
0
0
0
0
0
0
0
0
0
0
0
0
0
0
0
0
0
0
0
0
0
0
0
0
0
0
0
5
5
5
5
0
0
5
5
5
5
0
5
5
5
5
5
5
5
5
1
1
1
1
1
1
1
1
1
1
1
1
1
1
1
1
0
0
0
0
0
0
0
0
0
0
0
0
0
0
0
0
0
0
0
0
0
0
0
0
0
0
0
0
0
0
0
0
0
0
0
0
0
0
0
0
0
0
0
0
0
0
0
0
0
0
0
0
5
5
5
5
5
5
5
5
5
5
5
5
5
5
5
5
1
1
1
1
1
1
1
1
1
1
1
1
1
1
1
1
0
0
0
0
0
0
0
0
0
0
0
0
0
0
0
0
0
0
0
0
0
0
0
0
0
0
0
0
0
0
0
0
0
0
0
0
0
0
0
0
0
0
0
0
0
0
0
0